#                 x                0.01                4.99
#                 y                   0                   0
#                 z                   0                   0
#              Time
                 10    0.00171105518856   4.96594595143e-07
                 20     0.0010103393762   1.22684524635e-06
                 30   0.000754002861159   9.54666105927e-07
                 40   0.000738593892044   8.30495366212e-07
                 50   0.000724335833128   7.68953356199e-07
                 60   0.000695595878682     7.182459061e-07
                 70   0.000667950140857   6.79339084794e-07
                 80   0.000642922099538   6.48835653205e-07
                 90   0.000619916435793   6.23807393243e-07
                100   0.000599750434446   6.02806643239e-07
                110   0.000582236521318   5.85001889935e-07
                120   0.000566974339492   5.69621601779e-07
                130   0.000553655572968   5.56199540038e-07
                140   0.000541880088729   5.44361193449e-07
                150   0.000531406341119   5.33858317667e-07
                160   0.000522078815882   5.24463899236e-07
                170   0.000513611600946   5.16002738524e-07
                180   0.000505991376416   5.08369181817e-07
                190   0.000499046609688    5.0141943469e-07
                200   0.000492731904612   4.95082329176e-07
                210    0.00048694045343   4.89273310673e-07
                220   0.000481611863815   4.83932913734e-07
                230   0.000476703256965   4.79015077887e-07
                240   0.000472171605267   4.74461410441e-07
                250   0.000467919799225   4.70241484024e-07
                260   0.000464053408929   4.66324465473e-07
                270   0.000460405823117   4.62679961699e-07
                280   0.000457010420816   4.59273068305e-07
                290   0.000453836906752   4.56092029603e-07
                300   0.000450865445932   4.53121716378e-07
                310   0.000448088639665   4.50334120237e-07
                320   0.000445478984667   4.47725134911e-07
                330   0.000443024765141   4.45265269614e-07
                340   0.000440718296896    4.4295865448e-07
                350   0.000438544780971   4.40781720967e-07
                360   0.000436496200063   4.38731884337e-07
                370   0.000434565471329   4.36800975618e-07
                380   0.000432742784192   4.34973323679e-07
                390   0.000431017052262   4.33252149264e-07
                400   0.000429390552045   4.31623921559e-07
                410   0.000427848051125   4.30078931314e-07
                420   0.000426388204634   4.28613811728e-07
                430   0.000425008136095   4.27231104331e-07
                440   0.000423695504305   4.25917080747e-07
                450   0.000422453794847   4.24668088583e-07
                460   0.000421275667239   4.23489923922e-07
                470     0.0004201559942   4.22361983591e-07
                480   0.000419095193924   4.21293470708e-07
                490   0.000418086072183   4.20275255066e-07
                500    0.00041712785214    4.1931123229e-07
                510   0.000416216728721   4.18395655449e-07
                520   0.000415352369744   4.17522064775e-07
                530   0.000414528534376   4.16692945928e-07
                540    0.00041374542347   4.15901615211e-07
                550   0.000413000994907   4.15150054655e-07
                560   0.000412291808909   4.14435437769e-07
                570   0.000411618078119   4.13755775634e-07
                580   0.000410975028891   4.13108470435e-07
                590   0.000410364988781   4.12492677127e-07
                600   0.000409783090225   4.11907316565e-07
                610   0.000409227807061   4.11347006722e-07
                620   0.000408700552117   4.10815939727e-07
                630   0.000408198269248   4.10310996516e-07
                640   0.000407719580281   4.09827172644e-07
                650   0.000407263061809   4.09369830402e-07
                660   0.000406828370343   4.08933297859e-07
                670   0.000406414094807   4.08516321934e-07
                680   0.000406019368143   4.08120551504e-07
                690   0.000405642743234   4.07741436853e-07
                700   0.000405283758123   4.07380159142e-07
                710    0.00040494048279   4.07037318726e-07
                720    0.00040462377477   4.06709806588e-07
                730   0.000404306648295   4.06398770169e-07
                740   0.000404011188567   4.06103979769e-07
                750   0.000403732150765   4.05820992741e-07
                760   0.000403461035116   4.05555834923e-07
                770   0.000403202013152   4.05299631535e-07
                780   0.000402957130843   4.05052458737e-07
                790    0.00040272632479   4.04813854876e-07
                800   0.000402502152689   4.04588713583e-07
                810   0.000402290979382   4.04371502804e-07
                820   0.000402089821056   4.04167300064e-07
                830   0.000401896662961   4.03973792544e-07
                840   0.000401712254965   4.03789055169e-07
                850   0.000401536043116   4.03612415953e-07
                860   0.000401369526896   4.03445562423e-07
                870   0.000401209970065   4.03286041814e-07
                880   0.000401057901876   4.03133618498e-07
                890   0.000400912043798   4.02987292313e-07
                900   0.000400774110311   4.02848930971e-07
                910   0.000400642258175   4.02716323641e-07
                920   0.000400516307508   4.02589757542e-07
                930   0.000400398252198   4.02469404124e-07
                940   0.000400281317766   4.02354571142e-07
                950    0.00040017220215   4.02244536476e-07
                960   0.000400068075913   4.02139625539e-07
                970   0.000399968763681   4.02040092972e-07
                980   0.000399873724751    4.0194508508e-07
                990   0.000399783288181   4.01854568318e-07
               1000   0.000399698033524   4.01768624693e-07
               1010   0.000399614599148   4.01685373745e-07
               1020   0.000399536129116   4.01606912349e-07
               1030   0.000399461301104    4.0153217817e-07
               1040   0.000399389968749   4.01460225054e-07
               1050   0.000399321802238   4.01392325582e-07
               1060   0.000399256722282    4.0132702666e-07
               1070   0.000399194723302   4.01264789588e-07
               1080   0.000399135583797    4.0120506822e-07
               1090   0.000399079176479   4.01148150748e-07
               1100    0.00039902533062   4.01094082855e-07
               1110   0.000398974025046   4.01042250422e-07
               1120   0.000398925076874    4.0099301665e-07
               1130   0.000398878095371    4.0094589473e-07
               1140   0.000398833784588   4.00901016495e-07
               1150   0.000398791257102   4.00858347103e-07
               1160   0.000398750680204   4.00817484085e-07
               1170     0.0003987119884   4.00778467049e-07
               1180   0.000398675115376   4.00741021806e-07
               1190    0.00039863992453   4.00705619277e-07
               1200   0.000398606341517    4.0067180396e-07
               1210   0.000398574263598   4.00639455553e-07
               1220   0.000398543756606    4.0060865203e-07
               1230   0.000398514604383   4.00579131569e-07
               1240   0.000398486823143   4.00550993005e-07
               1250   0.000398460287251   4.00524203195e-07
               1260   0.000398435003582   4.00498581156e-07
               1270    0.00039841090246   4.00474306826e-07
               1280   0.000398387907621    4.0045110388e-07
               1290   0.000398365947827   4.00428886391e-07
               1300   0.000398345057756   4.00407795882e-07
