#                 x                0.01                4.99
#                 y                   0                   0
#                 z                   0                   0
#              Time
                 10                   (0.00108910669983 5.09643397105e-16 -5.68229599253e-09)                   (0.00108330105544 -3.80718287485e-19 -2.96731623048e-09)
                 20                   (0.00113304310333 3.28135172428e-16 -3.80847303639e-08)                   (0.00112766036627 -2.9135996418e-19 2.57443273168e-09)
                 30                   (0.00117072739383 1.53370484621e-16 -3.33944499688e-08)                   (0.00116455805977 -2.64685928481e-19 -4.90846175516e-10)
                 40                   (0.00120298699037 1.77050039652e-16 -4.24772142834e-08)                   (0.00119703059912 -2.55552976189e-19 1.16758484688e-10)
                 50                   (0.00123232959747 1.76597383192e-16 -5.04108125794e-08)                   (0.00122640779518 -2.68821570242e-19 2.04718663019e-10)
                 60                   (0.00125952045275 1.73800756269e-16 -5.89072782577e-08)                   (0.00125362260582 -1.58425504022e-19 1.63963554182e-10)
                 70                   (0.00128512551408 1.6565181846e-16 -6.79132289542e-08)                   (0.00127921375467 -1.5728956141e-19 1.64850426939e-10)
                 80                   (0.00130948140697 1.62264392426e-16 -7.75278379175e-08)                   (0.00130353265008 -1.55271993502e-19 1.67667345265e-10)
                 90                   (0.00133282679533 1.648134218e-16 -8.77851508629e-08)                   (0.00132682299644 -1.44906348562e-19 1.75518526978e-10)
                100                   (0.0013553331842 1.65273675588e-16 -9.86934663173e-08)                   (0.0013492598844 -1.56693409425e-19 1.91989226743e-10)
                110                   (0.00137712506546 1.52522968986e-16 -1.10278266784e-07)                   (0.00137097335501 -1.52596592897e-19 2.50937713032e-10)
                120                   (0.00139829598298 1.73930803737e-16 -1.22549476062e-07)                   (0.00139206114524 -1.49720384381e-19 3.13075991943e-10)
                130                   (0.00141891436532 1.78922908407e-16 -1.35518037965e-07)                   (0.00141259637632 -1.59457375494e-19 3.68735896052e-10)
                140                   (0.00143902975548 1.73263934415e-16 -1.49186205198e-07)                   (0.00143263290337 -1.66148441836e-19 4.15205164252e-10)
                150                   (0.00145867632409 1.68913230438e-16 -1.63554148605e-07)                   (0.00145220930075 -1.70696437393e-19 4.38332718952e-10)
                160                   (0.0014778756297 1.7682997768e-16 -1.78614155927e-07)                   (0.0014713517893 -1.63288882213e-19 4.4286676235e-10)
                170                   (0.00149663966503 1.68595318796e-16 -1.94350387871e-07)                   (0.0014900766085 -1.71432640225e-19 4.37214553482e-10)
                180                   (0.00151497257972 1.65761547448e-16 -2.1074334602e-07)                   (0.00150839225256 -1.63347315149e-19 4.2475909021e-10)
                190                   (0.00153287270725 1.65935326672e-16 -2.2776762097e-07)                   (0.0015263014503 -1.61338856405e-19 4.08251224543e-10)
                200                   (0.00155033468876 1.65115234567e-16 -2.45386095802e-07)                   (0.00154380254368 -1.57230698878e-19 3.89363223834e-10)
                210                   (0.00156735066415 1.64796027521e-16 -2.63559766675e-07)                   (0.00156089122109 -1.53823144606e-19 3.69214854188e-10)
                220                   (0.0015839112839 1.64254285376e-16 -2.82245752533e-07)                   (0.00157756135508 -1.62197551201e-19 3.49074927954e-10)
                230                   (0.0016000066619 1.62444468796e-16 -3.01395454748e-07)                   (0.00159380636241 -1.56926000902e-19 3.28802925003e-10)
                240                   (0.00161562562632 1.56224448028e-16 -3.20940464838e-07)                   (0.00160961993466 -1.57583012448e-19 3.07921696117e-10)
                250                   (0.00163076008755 1.50931038357e-16 -3.40830317602e-07)                   (0.00162499615009 -1.59757835219e-19 2.8759254934e-10)
                260                   (0.00164541478796 1.56489403652e-16 -3.61079219045e-07)                   (0.00163993027229 -1.61707413976e-19 2.67423451711e-10)
                270                   (0.00165957704516 1.59709674706e-16 -3.81549662503e-07)                   (0.001654418916 -1.55704798939e-19 2.47911646736e-10)
                280                   (0.00167324371853 1.56584344715e-16 -4.0218899337e-07)                   (0.00166846011053 -1.56140919521e-19 2.28632312065e-10)
                290                   (0.00168641366365 1.61435928964e-16 -4.22954598259e-07)                   (0.00168205352093 -1.51372827731e-19 2.09500573395e-10)
                300                   (0.0016990879199 1.54938439968e-16 -4.43792815185e-07)                   (0.00169520031048 -1.53506850284e-19 1.90280539122e-10)
                310                   (0.00171126957806 1.43437792547e-16 -4.64648591972e-07)                   (0.00170790307835 -1.58134973211e-19 1.71212871883e-10)
                320                   (0.00172296319273 1.49490762413e-16 -4.85467970591e-07)                   (0.00172016579432 -1.52087371329e-19 1.52344387768e-10)
                330                   (0.00173417469683 1.50311712791e-16 -5.06201029121e-07)                   (0.00173199379684 -1.53726626593e-19 1.33503223352e-10)
                340                   (0.00174491141797 1.53076837724e-16 -5.26801381832e-07)                   (0.00174339356735 -1.54675880818e-19 1.14640205372e-10)
                350                   (0.00175518204626 1.5723686186e-16 -5.47224833615e-07)                   (0.00175437259936 -1.45110807258e-19 9.56308693763e-11)
                360                   (0.00176499636034 1.5032130635e-16 -5.67431027417e-07)                   (0.00176493936032 -1.52741263985e-19 7.65374562232e-11)
                370                   (0.00177436503922 1.53312340559e-16 -5.87382471022e-07)                   (0.00177510306533 -1.59000453357e-19 5.74421222763e-11)
                380                   (0.00178329965411 1.56172865101e-16 -6.07044713617e-07)                   (0.00178487353775 -1.58617219651e-19 4.06695827954e-11)
                390                   (0.00179181248718 1.50530950026e-16 -6.26386987333e-07)                   (0.0017942594131 -1.5560854054e-19 2.92459089537e-11)
                400                   (0.00179991647911 1.62982152518e-16 -6.45382681152e-07)                   (0.00180327020066 -1.49348530829e-19 2.0693199637e-11)
                410                   (0.00180762488505 1.55298846466e-16 -6.64007531182e-07)                   (0.00181191669044 -1.53197883002e-19 1.40715787368e-11)
                420                   (0.00181495114716 1.545939643e-16 -6.82239763288e-07)                   (0.00182020991082 -1.54564686739e-19 8.70321819993e-12)
                430                   (0.00182190885648 1.47592303165e-16 -7.00060978086e-07)                   (0.00182816102706 -1.48103790472e-19 4.30541523927e-12)
                440                   (0.0018285116157 1.49204826987e-16 -7.17454939602e-07)                   (0.00183578129613 -1.47277165499e-19 5.95620944383e-13)
                450                   (0.00183477302446 1.51528329493e-16 -7.34407420669e-07)                   (0.00184308004301 -1.47981818783e-19 -1.81788372609e-12)
                460                   (0.00184070664333 1.5255374857e-16 -7.50907595382e-07)                   (0.00185006401202 -1.56855598713e-19 -9.90331306586e-13)
                470                   (0.00184632594773 1.46164366656e-16 -7.66947241966e-07)                   (0.00185675117498 -1.4432405038e-19 -1.47435274139e-12)
                480                   (0.00185164427103 1.46862470303e-16 -7.8252048036e-07)                   (0.00186315229481 -1.5571575828e-19 -1.06357236527e-12)
                490                   (0.00185667472348 1.45211336832e-16 -7.9762346287e-07)                   (0.0018692792609 -1.56344286715e-19 -1.18009636083e-12)
                500                   (0.00186143007955 1.54818856554e-16 -8.12254689074e-07)                   (0.00187514204121 -1.43150165694e-19 -8.39570512658e-13)
                510                   (0.00186592285357 1.42950076545e-16 -8.26414021477e-07)                   (0.0018807515983 -1.48002063778e-19 -9.11379285904e-13)
                520                   (0.00187016526061 1.49517433844e-16 -8.40102825433e-07)                   (0.00188611599866 -1.47759029623e-19 -7.74935426947e-13)
                530                   (0.00187416919094 1.49344408656e-16 -8.53323933349e-07)                   (0.00189124478261 -1.48971702115e-19 -5.93617728211e-13)
                540                   (0.00187794617623 1.53483179506e-16 -8.66081503983e-07)                   (0.00189614847089 -1.47588765562e-19 -6.30703142834e-13)
                550                   (0.00188150737748 1.42347231653e-16 -8.78380889464e-07)                   (0.00190083470088 -1.50366170356e-19 -6.22590252518e-13)
                560                   (0.00188486358153 1.53430242899e-16 -8.90228473087e-07)                   (0.00190531331773 -1.49503115954e-19 -5.95814359612e-13)
                570                   (0.00188802517725 1.45066852552e-16 -9.01631536055e-07)                   (0.00190959260563 -1.48763125829e-19 -5.9131663189e-13)
                580                   (0.00189100218054 1.55972893538e-16 -9.12598210819e-07)                   (0.00191368065116 -1.50449829045e-19 -2.3036064705e-13)
                590                   (0.00189380429348 1.49876912627e-16 -9.23137471441e-07)                   (0.00191758630342 -1.48749870826e-19 -4.31901406872e-13)
                600                   (0.0018964407952 1.50476856965e-16 -9.33258900685e-07)                   (0.00192131612609 -1.44680956485e-19 -2.84050779169e-13)
                610                   (0.00189892049554 1.59939124732e-16 -9.42972483572e-07)                   (0.00192487875678 -1.47262218415e-19 -2.87239540198e-13)
                620                   (0.00190125182267 1.51344454852e-16 -9.52288604957e-07)                   (0.0019282807536 -1.48475868221e-19 -2.58674027077e-13)
                630                   (0.00190344284204 1.5137849095e-16 -9.61217774724e-07)                   (0.00193152952481 -1.4953831803e-19 -3.44614514016e-13)
                640                   (0.00190550124738 1.57896883227e-16 -9.69770808077e-07)                   (0.00193463185719 -1.50143160515e-19 -5.54615584787e-13)
                650                   (0.00190743438152 1.52333511603e-16 -9.77958645612e-07)                   (0.00193759419085 -1.47935980107e-19 -8.41323500978e-13)
                660                   (0.00190924924375 1.57489183527e-16 -9.85792430797e-07)                   (0.00194042269819 -1.5718630071e-19 -1.17649489673e-12)
                670                   (0.00191095249144 1.51156710145e-16 -9.93283296718e-07)                   (0.0019431232663 -1.47250077887e-19 -1.53008613092e-12)
                680                   (0.00191255045722 1.49500187154e-16 -1.00044237858e-06)                   (0.00194570152926 -1.51761733676e-19 -1.90133319059e-12)
                690                   (0.00191404879444 1.40118631286e-16 -1.00706275368e-06)                   (0.00194816289955 -1.465830027e-19 -2.29696596406e-12)
                700                   (0.00191544816166 1.44879868247e-16 -1.01404908421e-06)                   (0.00195051255155 -1.4279996462e-19 -2.69703792993e-12)
                710                   (0.00191675262706 1.46139813982e-16 -1.02023768112e-06)                   (0.00195275545258 -1.43995897377e-19 -3.04477517869e-12)
                720                   (0.00191796758514 1.58625178789e-16 -1.02622373848e-06)                   (0.00195489636898 -1.44183190229e-19 -3.43429408054e-12)
                730                   (0.00191909841143 1.43093966975e-16 -1.03192130917e-06)                   (0.00195694040093 -1.43952504529e-19 1.74457677582e-12)
                740                   (0.00192015003441 1.49576453896e-16 -1.03734457187e-06)                   (0.00195889078317 -1.51206823505e-19 9.32909201822e-12)
                750                   (0.00192112725705 1.56555695804e-16 -1.04251543545e-06)                   (0.00196075244898 -1.53225804403e-19 1.59670967705e-11)
                760                   (0.00192203464336 1.42265524746e-16 -1.04744079e-06)                   (0.00196252928162 -1.49119630646e-19 2.17917882038e-11)
                770                   (0.00192287653255 1.49080926215e-16 -1.0521296128e-06)                   (0.00196422511137 -1.47536058333e-19 2.63191513141e-11)
                780                   (0.00192365690199 1.50695839161e-16 -1.05659137338e-06)                   (0.00196584356439 -1.41692242407e-19 3.00244742619e-11)
                790                   (0.00192437974257 1.47473110413e-16 -1.06083511473e-06)                   (0.00196738810533 -1.4282515098e-19 3.30121398785e-11)
                800                   (0.00192504859257 1.50670227996e-16 -1.06486921038e-06)                   (0.00196886206426 -1.42682210989e-19 3.53254306135e-11)
                810                   (0.00192566704622 1.42660813471e-16 -1.06870329765e-06)                   (0.00197026863862 -1.4009125475e-19 3.68964056799e-11)
                820                   (0.00192623819128 1.47646865676e-16 -1.07234434646e-06)                   (0.00197161087264 -1.42856949676e-19 3.78280058008e-11)
                830                   (0.00192676531035 1.51384485006e-16 -1.07580131664e-06)                   (0.00197289169122 -1.37298068266e-19 3.81553681561e-11)
                840                   (0.00192725116445 1.4812057237e-16 -1.07908174127e-06)                   (0.00197411387953 -1.35679327848e-19 3.79306375917e-11)
                850                   (0.00192769848178 1.49647508481e-16 -1.08219280155e-06)                   (0.00197528010044 -1.44398278664e-19 3.72841679272e-11)
                860                   (0.00192811000825 1.45189992775e-16 -1.08514398294e-06)                   (0.00197639289558 -1.495868462e-19 3.62864222459e-11)
                870                   (0.00192848803836 1.49061292273e-16 -1.08794048437e-06)                   (0.00197745469588 -1.49671074224e-19 3.50678187006e-11)
                880                   (0.00192883480112 1.55424446146e-16 -1.09058887314e-06)                   (0.00197846782313 -1.52355439727e-19 3.3636104422e-11)
                890                   (0.00192915259365 1.56028985256e-16 -1.0930975124e-06)                   (0.00197943449576 -1.44053355262e-19 3.20104336688e-11)
                900                   (0.00192944344304 1.47419710654e-16 -1.09547259006e-06)                   (0.00198035683039 -1.4833316159e-19 3.02855812759e-11)
                910                   (0.00192970917402 1.56990940505e-16 -1.09771994923e-06)                   (0.00198123685234 -1.43179764201e-19 2.84276846665e-11)
                920                   (0.00192995155253 1.55798563175e-16 -1.09984491286e-06)                   (0.00198207649448 -1.4829602814e-19 2.64759497008e-11)
                930                   (0.00193017223684 1.44734292039e-16 -1.10185317889e-06)                   (0.00198287759995 -1.48043895345e-19 2.44184906609e-11)
                940                   (0.00193037292225 1.56062867296e-16 -1.10375150335e-06)                   (0.00198364192924 -1.39923954689e-19 2.22474804923e-11)
                950                   (0.00193055505076 1.45197329942e-16 -1.10554572333e-06)                   (0.00198437116304 -1.44767419537e-19 1.98831208068e-11)
                960                   (0.00193071995815 1.46355684463e-16 -1.10724013873e-06)                   (0.00198506690279 -1.51119506479e-19 1.74434369377e-11)
                970                   (0.00193086893489 1.47556384277e-16 -1.10883937076e-06)                   (0.00198573068457 -1.49089921515e-19 1.53482284049e-11)
                980                   (0.00193100319068 1.53421114021e-16 -1.11034783046e-06)                   (0.00198636397305 -1.46660446501e-19 1.35380319898e-11)
                990                   (0.00193112383994 1.55882123938e-16 -1.11176991545e-06)                   (0.00198696816939 -1.5353552912e-19 1.19484963852e-11)
               1000                   (0.00193123191082 1.56400646379e-16 -1.11310999117e-06)                   (0.00198754460971 -1.39575894582e-19 1.05486633984e-11)
               1010                   (0.00193132845819 1.53758997998e-16 -1.11437328141e-06)                   (0.00198809457183 -1.44912170808e-19 9.29829298246e-12)
               1020                   (0.00193141439758 1.42921498093e-16 -1.11556405303e-06)                   (0.00198861927053 -1.53486935252e-19 8.18099542537e-12)
               1030                   (0.00193149055786 1.46348370806e-16 -1.11668578583e-06)                   (0.00198911986578 -1.44056671137e-19 7.15272132794e-12)
               1040                   (0.00193155774275 1.48226292782e-16 -1.1177418796e-06)                   (0.00198959746525 -1.44984719088e-19 6.21382581189e-12)
               1050                   (0.00193161671203 1.55075965865e-16 -1.11873552673e-06)                   (0.00199005313144 -1.59721238292e-19 6.72807411132e-12)
               1060                   (0.00193166816711 1.53082761522e-16 -1.11966986881e-06)                   (0.00199048791661 -1.50525952786e-19 7.78596935868e-12)
               1070                   (0.00193171274884 1.45935165511e-16 -1.12054798255e-06)                   (0.00199090277047 -1.40708051824e-19 8.72895114122e-12)
               1080                   (0.0019317510439 1.4235040774e-16 -1.12137283066e-06)                   (0.00199129859273 -1.39315787235e-19 9.50655056565e-12)
               1090                   (0.00193178359184 1.59057773089e-16 -1.12214729018e-06)                   (0.00199167624337 -1.42193865831e-19 1.00809497549e-11)
               1100                   (0.00193181089066 1.64724907576e-16 -1.12287410806e-06)                   (0.00199203654637 -1.45302245491e-19 1.04550495482e-11)
               1110                   (0.00193183340198 1.45142317997e-16 -1.12355592694e-06)                   (0.00199238029584 -1.42384630846e-19 1.06712312236e-11)
               1120                   (0.00193185155301 1.50153295635e-16 -1.12419525143e-06)                   (0.00199270824484 -1.47701815289e-19 1.07662279945e-11)
               1130                   (0.00193186575408 1.51518150564e-16 -1.12479464716e-06)                   (0.00199302111737 -1.53138803638e-19 1.07716061691e-11)
               1140                   (0.00193187642436 1.54343669243e-16 -1.12535689052e-06)                   (0.0019933195999 -1.40354969072e-19 1.07117509057e-11)
               1150                   (0.00193188390835 1.55282892587e-16 -1.1258840536e-06)                   (0.00199360435321 -1.39435876505e-19 1.06350916996e-11)
               1160                   (0.00193188852741 1.52364289506e-16 -1.12637813318e-06)                   (0.00199387600615 -1.48244894689e-19 1.05279810181e-11)
               1170                   (0.00193189059295 1.54807073844e-16 -1.12684088058e-06)                   (0.00199413516086 -1.49751994677e-19 1.04169858083e-11)
               1180                   (0.00193189039634 1.50772087602e-16 -1.12727397694e-06)                   (0.00199438239015 -1.54514509104e-19 1.0309573634e-11)
               1190                   (0.00193188820339 1.45599130324e-16 -1.12767903963e-06)                   (0.00199461824171 -1.50136735703e-19 1.01962044603e-11)
               1200                   (0.00193188425364 1.49846297594e-16 -1.12805764156e-06)                   (0.00199484324015 -1.52471574797e-19 1.00789162054e-11)
               1210                   (0.00193187876249 1.52701991643e-16 -1.12841129578e-06)                   (0.00199505788309 -1.55448626956e-19 9.94897607812e-12)
               1220                   (0.00193187192385 1.41595635448e-16 -1.12874145178e-06)                   (0.00199526264585 -1.56577267299e-19 9.80219985507e-12)
               1230                   (0.00193186391257 1.49072140194e-16 -1.12904950353e-06)                   (0.00199545798492 -1.53131964053e-19 9.65096908693e-12)
               1240                   (0.00193185488697 1.50758038177e-16 -1.12933677008e-06)                   (0.00199564433218 -1.45356955906e-19 9.48628743699e-12)
               1250                   (0.00193184499066 1.60561686698e-16 -1.12960450353e-06)                   (0.00199582209702 -1.45077112002e-19 9.30879453116e-12)
               1260                   (0.00193183435399 1.50419799436e-16 -1.1298538886e-06)                   (0.00199599167036 -1.54088587083e-19 9.12528736486e-12)
               1270                   (0.00193182309561 1.57854791276e-16 -1.13008604649e-06)                   (0.00199615342317 -1.57387482683e-19 8.93078814867e-12)
               1280                   (0.00193181132389 1.49252440404e-16 -1.13030202533e-06)                   (0.00199630770159 -1.48458141229e-19 8.73597168116e-12)
               1290                   (0.00193179913819 1.51805661204e-16 -1.13050280537e-06)                   (0.00199645482563 -1.53687478153e-19 8.5276662141e-12)
               1300                   (0.00193178663141 1.48993085739e-16 -1.13068927728e-06)                   (0.00199659507572 -1.52811451798e-19 8.31953866669e-12)
