#                 x                0.01                4.99
#                 y                   0                   0
#                 z                   0                   0
#              Time
                 10    0.00858969284633   2.48162646159e-06
                 20    0.00491890143601   6.20425610221e-06
                 30     0.0037550083737   4.76448970852e-06
                 40    0.00369811079041   4.14815682071e-06
                 50    0.00363001897994   3.85556998367e-06
                 60    0.00350628780202   3.59709611746e-06
                 70    0.00340353485131   3.40219615595e-06
                 80    0.00326483991504   3.25538205505e-06
                 90    0.00310729864836   3.12218934474e-06
                100    0.00300169607428   3.02353039398e-06
                110     0.0029175595851   2.93109358792e-06
                120    0.00283746704199   2.85353476468e-06
                130    0.00277149916377   2.78657393405e-06
                140    0.00270889892977   2.72744602812e-06
                150    0.00265848536827   2.67430989407e-06
                160    0.00261060026146   2.62710982493e-06
                170    0.00256828688152   2.58513124153e-06
                180    0.00253049628566    2.5467618189e-06
                190    0.00249499910093   2.51192792641e-06
                200    0.00246390861951   2.47983827726e-06
                210    0.00243471042686   2.45067386482e-06
                220    0.00240815930277   2.42397241368e-06
                230    0.00238330400111     2.398848628e-06
                240    0.00236071386555   2.37579680504e-06
                250    0.00233991661048   2.35469874371e-06
                260    0.00232027623839   2.33505517466e-06
                270    0.00230213011851   2.31683788263e-06
                280     0.0022850633637    2.2996839779e-06
                290    0.00226924585845   2.28361471622e-06
                300    0.00225440959858   2.26854134991e-06
                310    0.00224069500212   2.25472670207e-06
                320    0.00222749065131   2.24144615403e-06
                330    0.00221535661741   2.22913271944e-06
                340    0.00220370889901    2.2175377226e-06
                350    0.00219308115077   2.20666396327e-06
                360    0.00218271206877   2.19635245141e-06
                370    0.00217310701706   2.18733352815e-06
                380    0.00216397962001   2.17846789771e-06
                390    0.00215545409136   2.16883165341e-06
                400    0.00214733055638   2.15940122161e-06
                410    0.00213962085368   2.15157779829e-06
                420    0.00213244829299   2.14431688024e-06
                430    0.00212545148292   2.13726804724e-06
                440    0.00211902681548   2.13071219584e-06
                450    0.00211268534737    2.1245204143e-06
                460     0.0021068740134   2.11863828448e-06
                470    0.00210148205587   2.11309421917e-06
                480    0.00209597941049   2.10778412788e-06
                490    0.00209094631263   2.10246273922e-06
                500    0.00208604616156   2.09778055106e-06
                510    0.00208159200524   2.09311344227e-06
                520    0.00207762642722   2.08897597331e-06
                530    0.00207320498388   2.08482409759e-06
                540    0.00206924621681   2.08082721064e-06
                550     0.0020655722696   2.07711008992e-06
                560    0.00206221954141   2.07353305567e-06
                570    0.00205868315131   2.07022388027e-06
                580    0.00205552408291   2.06690845721e-06
                590    0.00205248382781   2.06387181125e-06
                600    0.00204953579818   2.06091099989e-06
                610     0.0020467868852    2.0581279733e-06
                620    0.00204418581894   2.05541866427e-06
                630    0.00204169052952   2.05291557163e-06
                640    0.00203927312886   2.05043407635e-06
                650    0.00203696301737   2.04809026653e-06
                660    0.00203477384998   2.04582562941e-06
                670    0.00203282867601   2.04376027201e-06
                680    0.00203084214149    2.0417346578e-06
                690    0.00202894211513   2.03980269256e-06
                700    0.00202721416595   2.03797744239e-06
                710    0.00202544958857   2.03622724618e-06
                720    0.00202378769472    2.0345513358e-06
                730    0.00202222834059   2.03292366912e-06
                740    0.00202073264435   2.03140239897e-06
                750    0.00201935322511   2.02995331932e-06
                760    0.00201801137586   2.02857866385e-06
                770    0.00201670343289   2.02727080129e-06
                780    0.00201550311854   2.02601574264e-06
                790    0.00201435129786   2.02482257611e-06
                800    0.00201324065248   2.02369192332e-06
                810     0.0020121753993   2.02258453767e-06
                820    0.00201115934366   2.02154226184e-06
                830    0.00201021136437   2.02054942531e-06
                840    0.00200931090039    2.0195952712e-06
                850    0.00200840132264   2.01868562166e-06
                860    0.00200757208649    2.0178333048e-06
                870    0.00200677945461   2.01699343981e-06
                880    0.00200601254355   2.01619848428e-06
                890    0.00200532167689   2.01547578695e-06
                900    0.00200458980603   2.01475994799e-06
                910     0.0020039493305   2.01409855274e-06
                920    0.00200331049238   2.01342650863e-06
                930    0.00200271992153   2.01282407481e-06
                940    0.00200212937008   2.01221535581e-06
                950    0.00200159290824     2.011662344e-06
                960    0.00200106908059     2.011137376e-06
                970    0.00200057604004   2.01060951403e-06
                980     0.0020001194756    2.0101383027e-06
                990    0.00199965849581    2.0096468257e-06
               1000    0.00199923472279   2.00920900653e-06
               1010    0.00199880218803   2.00877963458e-06
               1020    0.00199840875009   2.00836597852e-06
               1030    0.00199802456577   2.00796535022e-06
               1040    0.00199765153615   2.00758615545e-06
               1050    0.00199731593699   2.00723446236e-06
               1060    0.00199698326181    2.0068880357e-06
               1070    0.00199667373853   2.00657518484e-06
               1080    0.00199637179359   2.00626434566e-06
               1090    0.00199609039266   2.00596627042e-06
               1100     0.0019958163807   2.00568489053e-06
               1110    0.00199555693278   2.00541452034e-06
               1120    0.00199531104945   2.00516342008e-06
               1130    0.00199507728886   2.00491603653e-06
               1140    0.00199485232941   2.00468290304e-06
               1150    0.00199464124281   2.00446412004e-06
               1160    0.00199443191974   2.00425147914e-06
               1170    0.00199423899241   2.00405350493e-06
               1180    0.00199405497418   2.00386422044e-06
               1190    0.00199387385493   2.00368135954e-06
               1200     0.0019937091943   2.00351199393e-06
               1210    0.00199354304919   2.00337697782e-06
               1220    0.00199339451926   2.00322204741e-06
               1230    0.00199324366862   2.00305305539e-06
               1240    0.00199310305571   2.00286641549e-06
               1250    0.00199297416107   2.00271890223e-06
               1260    0.00199284383525    2.0025854509e-06
               1270    0.00199272486309   2.00245948683e-06
               1280     0.0019926083172   2.00234713354e-06
               1290    0.00199249761613   2.00223414529e-06
               1300    0.00199239394586   2.00212612307e-06
               1310    0.00199229185298   2.00202288678e-06
               1320    0.00199219615561   2.00192552336e-06
               1330    0.00199210543906   2.00183249047e-06
               1340    0.00199201856543   2.00174296659e-06
               1350    0.00199193282556   2.00165667851e-06
               1360    0.00199185471305   2.00157550927e-06
               1370    0.00199177936077   2.00149778047e-06
               1380    0.00199170573324   2.00142325999e-06
               1390    0.00199163774448   2.00135188184e-06
               1400    0.00199157148548   2.00128354886e-06
               1410    0.00199150862302   2.00121909095e-06
               1420     0.0019914481615   2.00115685098e-06
               1430    0.00199139136983   2.00109642555e-06
               1440    0.00199133735976   2.00103958757e-06
               1450    0.00199128545914   2.00098542214e-06
               1460    0.00199123571497   2.00093373996e-06
               1470    0.00199118807426   2.00088438937e-06
               1480     0.0019911429172   2.00083654173e-06
               1490    0.00199109969614   2.00079112932e-06
               1500    0.00199105939579   2.00074810107e-06
               1510    0.00199101933114   2.00070645404e-06
               1520    0.00199098212696   2.00066746624e-06
               1530    0.00199094683834   2.00063029933e-06
               1540    0.00199091272853    2.0005947267e-06
               1550    0.00199087989087   2.00056050821e-06
               1560    0.00199084934618    2.0005278106e-06
               1570    0.00199081929661   2.00049633617e-06
               1580    0.00199079154508   2.00046658253e-06
               1590    0.00199076439336   2.00043808012e-06
               1600    0.00199073870819   2.00041066268e-06
               1610    0.00199071446491   2.00038494876e-06
               1620    0.00199069066299   2.00036025763e-06
               1630    0.00199066842969   2.00033647382e-06
               1640    0.00199064718524   2.00031414957e-06
               1650    0.00199062710885   2.00029308371e-06
               1660    0.00199060754041   2.00027220201e-06
               1670    0.00199058967153   2.00025332918e-06
               1680    0.00199057155214   2.00023388229e-06
               1690     0.0019905548301   2.00021585308e-06
               1700    0.00199053914407   2.00019899734e-06
               1710    0.00199052338352   2.00018204745e-06
               1720    0.00199050904143   2.00016647492e-06
               1730      0.001990494981   2.00015130865e-06
