#                 x                0.01                4.99
#                 y                   0                   0
#                 z                   0                   0
#              Time
                 10                   (0.00545118507263 1.96685223071e-15 -4.33216027522e-08)                   (0.00541656731463 -1.6084791892e-18 -1.38344044488e-08)
                 20                   (0.00567648113686 1.33737054019e-15 -2.1422023873e-07)                   (0.00563780108195 -2.0416820373e-18 1.64861153103e-08)
                 30                   (0.00587066737625 1.30831835348e-15 -2.2515970588e-07)                   (0.0058219705614 -1.14008624563e-18 1.56559497654e-09)
                 40                   (0.00603837525195 1.26767251928e-15 -3.142495925e-07)                   (0.00598438577159 -1.18675411896e-18 4.26679351798e-09)
                 50                   (0.00619135651107 1.33113498519e-15 -4.13363858431e-07)                   (0.00613118702333 -1.2239693072e-18 3.37317602806e-09)
                 60                   (0.00633333918315 1.28863367963e-15 -5.28972759223e-07)                   (0.00626698186632 -1.14979222596e-18 2.82070401437e-09)
                 70                   (0.00646672257845 1.27350340598e-15 -6.62209839299e-07)                   (0.00639461362481 -1.13683869962e-18 4.04415545553e-09)
                 80                   (0.00659292357505 1.17462287784e-15 -8.12306596609e-07)                   (0.00651593393069 -1.11026493635e-18 4.54104175836e-09)
                 90                   (0.00671294851922 1.16242540023e-15 -9.79173319868e-07)                   (0.00663212908824 -1.06491472908e-18 3.90358034301e-09)
                100                   (0.00682725041274 3.8016181485e-16 -1.1618017388e-06)                   (0.00674402287729 -1.13396201621e-18 3.85822427514e-09)
                110                   (0.00693612570828 7.13564198732e-16 -1.35956168572e-06)                   (0.00685228978937 -4.25476885724e-19 3.22128995956e-09)
                120                   (0.00703972186727 7.10903631668e-16 -1.5714110244e-06)                   (0.00695740515423 -6.94666148829e-19 2.64332881239e-09)
                130                   (0.00713808211173 7.03691651924e-16 -1.79556948517e-06)                   (0.00705975131197 -7.10507551759e-19 2.14156071925e-09)
                140                   (0.00723113248728 6.77783990242e-16 -2.03036825075e-06)                   (0.00715960838548 -6.94090822665e-19 1.66711494684e-09)
                150                   (0.00731880376801 6.76856159808e-16 -2.27384171182e-06)                   (0.00725719282152 -6.72818714949e-19 1.18883797909e-09)
                160                   (0.00740096961684 6.55607426197e-16 -2.52355194142e-06)                   (0.0073526573701 -6.70457466752e-19 6.64212941699e-10)
                170                   (0.00747748979583 5.9427831231e-16 -2.77718807102e-06)                   (0.00744616279392 -6.26520068837e-19 2.99681163438e-11)
                180                   (0.00754827029898 6.3831296911e-16 -3.03212925384e-06)                   (0.00753793955552 -6.17598128199e-19 -1.00986456088e-09)
                190                   (0.00761326602028 6.2229404291e-16 -3.28596236316e-06)                   (0.00762732892418 -5.96670455456e-19 -2.01781844276e-09)
                200                   (0.00767249078154 6.27648538089e-16 -3.53609425696e-06)                   (0.00771445536085 -6.11711705708e-19 -2.6668514284e-09)
                210                   (0.00772600818303 5.91535305002e-16 -3.78022779506e-06)                   (0.00779931832159 -6.53081606664e-19 -2.71543817508e-09)
                220                   (0.00777395207388 5.93960739078e-16 -4.01627906214e-06)                   (0.00788204943468 -6.91435878559e-19 -2.49938654527e-09)
                230                   (0.0078164860336 6.30600063683e-16 -4.25506008325e-06)                   (0.00796274689196 -6.7972402124e-19 -2.02953489176e-09)
                240                   (0.00785141813879 5.95304442067e-16 -4.47140025128e-06)                   (0.00804144965435 -6.6423351814e-19 -1.66713963701e-09)
                250                   (0.00787837730975 6.077667825e-16 -4.68032340317e-06)                   (0.00811812458653 -6.54510460068e-19 -1.57769219797e-09)
                260                   (0.00789788346038 6.33946699062e-16 -4.87632380978e-06)                   (0.00819264807141 -6.9107990686e-19 -1.80436216548e-09)
                270                   (0.00791058884065 6.62963460902e-16 -5.0570163884e-06)                   (0.00826493438573 -6.54875319105e-19 -2.20455250832e-09)
                280                   (0.00791724573113 6.98358325126e-16 -5.22139610854e-06)                   (0.00833493134955 -6.32242355347e-19 -2.5277380912e-09)
                290                   (0.0079186628792 7.52508601224e-16 -5.36889052375e-06)                   (0.00840262267446 -6.40087511966e-19 -2.55826213038e-09)
                300                   (0.0079156757708 7.55745295372e-16 -5.49910543683e-06)                   (0.00846809519974 -6.41110474602e-19 -2.51741344255e-09)
                310                   (0.00790911424394 7.53393373215e-16 -5.61212483099e-06)                   (0.00853138094179 -6.38719480223e-19 -2.41728206189e-09)
                320                   (0.00789977230054 7.45565224372e-16 -5.70831994054e-06)                   (0.00859251612018 -6.72524518466e-19 -2.34591437258e-09)
                330                   (0.00788838146218 7.45537266808e-16 -5.78835631781e-06)                   (0.00865153261842 -7.07747494033e-19 -2.33028729368e-09)
                340                   (0.00787560002432 7.40323902059e-16 -5.85313214832e-06)                   (0.00870842447509 -7.47732476323e-19 -2.29000145314e-09)
                350                   (0.00786200360048 7.68146187654e-16 -5.9037711975e-06)                   (0.00876324779049 -7.55267167938e-19 -2.18494830933e-09)
                360                   (0.00784808035482 7.76190128775e-16 -5.94152491519e-06)                   (0.00881604625855 -7.6324993765e-19 -2.17125376084e-09)
                370                   (0.00783423118334 8.02585761938e-16 -5.96776456024e-06)                   (0.00886680848842 -7.90556496997e-19 -2.08990885541e-09)
                380                   (0.00782077466303 7.64255407721e-16 -5.98392458223e-06)                   (0.00891561438899 -8.16704730282e-19 -2.00053234104e-09)
                390                   (0.00780795411766 7.55903390987e-16 -5.99143970221e-06)                   (0.00896252090793 -8.03563012541e-19 -1.92089833339e-09)
                400                   (0.00779594830551 7.65026241731e-16 -5.99170144517e-06)                   (0.00900750272564 -7.79311435748e-19 -1.69984369748e-09)
                410                   (0.00778487860574 7.39386005646e-16 -5.98603286864e-06)                   (0.00905070257762 -8.09917078602e-19 -1.61187159401e-09)
                420                   (0.00777481631732 7.52252980734e-16 -5.97566532394e-06)                   (0.00909216782421 -8.11134264139e-19 -1.49656772133e-09)
                430                   (0.00776579421706 7.76439204282e-16 -5.96170808657e-06)                   (0.00913193875987 -8.29354563351e-19 -1.30623227147e-09)
                440                   (0.00775781189347 7.97410022585e-16 -5.94516320902e-06)                   (0.00917011731039 -8.29416464987e-19 -1.17996350675e-09)
                450                   (0.00775084263316 7.43691005771e-16 -5.92679378579e-06)                   (0.00920676127974 -8.51079287063e-19 -1.02981129839e-09)
                460                   (0.00774483661888 7.5337383438e-16 -5.90744524016e-06)                   (0.00924187704013 -9.07804970748e-19 -3.31107274083e-10)
                470                   (0.00773973316568 7.37142556214e-16 -5.88781334018e-06)                   (0.00927563665616 -8.46077676189e-19 -3.06163473181e-12)
                480                   (0.00773546251782 7.41167388488e-16 -5.86845904129e-06)                   (0.0093079557297 -8.08341909373e-19 -1.29762097379e-11)
                490                   (0.007731948273 7.38812672174e-16 -5.84984747836e-06)                   (0.00933892026092 -8.0583625563e-19 -2.31110447788e-10)
                500                   (0.0077291134147 7.41242246187e-16 -5.83225001142e-06)                   (0.00936847277799 -8.01350468644e-19 -4.83060763065e-10)
                510                   (0.00772687848291 7.43162529432e-16 -5.81593696611e-06)                   (0.00939670866597 -8.00588540081e-19 -7.59396575186e-10)
                520                   (0.00772516816137 7.27636024492e-16 -5.80102755964e-06)                   (0.00942369119779 -8.27338902944e-19 -1.00994237224e-09)
                530                   (0.00772390997143 7.22947958224e-16 -5.78761796705e-06)                   (0.00944947840801 -8.30511337672e-19 -1.25573532886e-09)
                540                   (0.00772303687189 7.20585302747e-16 -5.77568624831e-06)                   (0.00947412213099 -8.21351864496e-19 -1.51931081683e-09)
                550                   (0.00772248544595 7.17093596978e-16 -5.7652590464e-06)                   (0.00949766741438 -7.77598054277e-19 -1.7666891577e-09)
                560                   (0.00772219877179 7.0931192887e-16 -5.75627756843e-06)                   (0.00952015919359 -8.21241993486e-19 -1.97423081499e-09)
                570                   (0.00772212656137 7.09626613088e-16 -5.74862964818e-06)                   (0.00954164281617 -8.33357974374e-19 -2.10566011902e-09)
                580                   (0.00772222350348 7.14482420938e-16 -5.74224429258e-06)                   (0.00956216535502 -8.25149452553e-19 -2.18000819525e-09)
                590                   (0.00772244948391 7.16271344721e-16 -5.73701420145e-06)                   (0.00958177124401 -8.2151154595e-19 -2.18970734408e-09)
                600                   (0.00772277034105 7.15396636364e-16 -5.73282009083e-06)                   (0.00960050334224 -8.65260182598e-19 -2.15900607697e-09)
                610                   (0.00772315713504 7.32404591881e-16 -5.72953698593e-06)                   (0.00961840077461 -8.3197162347e-19 -2.10206141469e-09)
                620                   (0.00772358545872 7.40142451439e-16 -5.72705815067e-06)                   (0.00963550016957 -8.28931265953e-19 -2.02851836631e-09)
                630                   (0.00772403511772 7.47905615963e-16 -5.72527827104e-06)                   (0.00965183630637 -8.50711968806e-19 -1.94027431625e-09)
                640                   (0.00772448956919 7.10712500124e-16 -5.72409550198e-06)                   (0.00966744344761 -8.70467796964e-19 -1.84903565354e-09)
                650                   (0.00772493565049 7.15222433403e-16 -5.72341197183e-06)                   (0.00968235007288 -8.45094250678e-19 -1.7314356836e-09)
                660                   (0.00772536299949 7.14562655722e-16 -5.72313980601e-06)                   (0.00969658292033 -8.29798681694e-19 -1.5765254241e-09)
                670                   (0.00772576438792 7.20868259576e-16 -5.7231965837e-06)                   (0.00971017280119 -8.55201733788e-19 -1.39413113511e-09)
                680                   (0.00772613462376 7.41639916769e-16 -5.72351275e-06)                   (0.00972315342267 -8.69069711086e-19 -1.18232630054e-09)
                690                   (0.00772647075574 7.18275103092e-16 -5.72402178101e-06)                   (0.00973556031488 -8.60567937837e-19 -1.01758932327e-09)
                700                   (0.00772677108636 7.21793983462e-16 -5.72467767686e-06)                   (0.00974742073893 -8.47247892932e-19 -8.59102419946e-10)
                710                   (0.00772703647021 7.23235436108e-16 -5.72541808574e-06)                   (0.00975876958485 -8.30799238002e-19 -6.88313224467e-10)
                720                   (0.00772726744349 7.6664169049e-16 -5.72621819391e-06)                   (0.00976962641377 -8.55949332308e-19 -6.27252385004e-10)
                730                   (0.00772746456524 7.55730788457e-16 -5.7270420765e-06)                   (0.00977999783427 -8.44146762266e-19 -6.21662864238e-10)
                740                   (0.0077276299214 7.27283627195e-16 -5.72786292747e-06)                   (0.00978989787012 -8.33683403726e-19 -6.4174118429e-10)
                750                   (0.00772776630927 7.39150485459e-16 -5.72866012451e-06)                   (0.00979933869832 -8.51113243932e-19 -6.42895338853e-10)
                760                   (0.00772787636922 7.43978682163e-16 -5.72941848344e-06)                   (0.0098083368927 -8.73887675906e-19 -6.06696893915e-10)
                770                   (0.00772796297817 7.84281476991e-16 -5.73012683823e-06)                   (0.00981691874444 -8.50156044687e-19 -5.10017297618e-10)
                780                   (0.00772802899773 7.33365586177e-16 -5.73077770246e-06)                   (0.00982511391585 -8.4724041009e-19 -4.44734947884e-10)
                790                   (0.00772807716283 7.38747730008e-16 -5.7313672962e-06)                   (0.00983294097351 -8.73494900496e-19 -3.79540888683e-10)
                800                   (0.00772811018323 7.4219655031e-16 -5.73189279581e-06)                   (0.00984041626162 -8.84297736632e-19 -3.19993580312e-10)
                810                   (0.00772813049402 7.53444045475e-16 -5.73235482581e-06)                   (0.00984755566934 -8.74876395273e-19 -2.68586684033e-10)
                820                   (0.00772814032575 7.58260054926e-16 -5.73275538651e-06)                   (0.00985437397275 -8.52102845044e-19 -2.25367425475e-10)
                830                   (0.00772814176025 7.48203322095e-16 -5.73309720616e-06)                   (0.00986088480247 -8.60157685544e-19 -1.91838836257e-10)
                840                   (0.00772813661488 7.38839055239e-16 -5.73338424255e-06)                   (0.00986710066384 -8.5277462899e-19 -1.62998068e-10)
                850                   (0.00772812650964 7.31147765147e-16 -5.73362088169e-06)                   (0.00987303444546 -8.58610578766e-19 -1.36950893162e-10)
                860                   (0.00772811288002 7.4485157141e-16 -5.73381147415e-06)                   (0.00987869875049 -8.34890062875e-19 -1.1268824155e-10)
                870                   (0.00772809681259 7.40764375371e-16 -5.73396147082e-06)                   (0.00988410524514 -8.40555600039e-19 -9.52572066069e-11)
                880                   (0.00772807923092 7.46394773434e-16 -5.73407573237e-06)                   (0.00988926440332 -8.51460299569e-19 -8.24766401361e-11)
                890                   (0.00772806096346 7.47821725433e-16 -5.73415895507e-06)                   (0.00989418725643 -8.54041356024e-19 -6.99194746926e-11)
                900                   (0.00772804269393 7.5686675629e-16 -5.73421572565e-06)                   (0.00989888455146 -8.40599082501e-19 -5.92057583616e-11)
                910                   (0.00772802493387 7.50517222988e-16 -5.73424982644e-06)                   (0.00990336644413 -8.59069749456e-19 -4.84875787503e-11)
                920                   (0.00772800805911 7.48909602323e-16 -5.73426565098e-06)                   (0.00990764234477 -8.31025147996e-19 -4.06601958564e-11)
                930                   (0.00772799231263 7.44775927084e-16 -5.73426710296e-06)                   (0.00991172072002 -8.36330031413e-19 -3.15644655192e-11)
                940                   (0.00772797790745 7.52619997955e-16 -5.73425702867e-06)                   (0.00991561009615 -8.35763301658e-19 -2.54536508184e-11)
                950                   (0.00772796495238 7.4945687261e-16 -5.7342383076e-06)                   (0.00991931746702 -8.55202336971e-19 -1.87588845347e-11)
                960                   (0.00772795351107 7.50014151979e-16 -5.73421317266e-06)                   (0.00992284791512 -8.57854605612e-19 -1.22528908673e-11)
                970                   (0.00772794356915 7.53591628822e-16 -5.73418396706e-06)                   (0.00992620340903 -8.58087963511e-19 -8.02220207743e-12)
                980                   (0.00772793508883 7.51355843795e-16 -5.73415265693e-06)                   (0.00992937676962 -8.42544819054e-19 -2.93817863289e-12)
                990                   (0.00772792796585 7.51496552536e-16 -5.73411986156e-06)                   (0.00993240341178 -8.49982687952e-19 -8.13718487358e-13)
               1000                   (0.00772792193174 7.51033445763e-16 -5.7340864991e-06)                   (0.00993538278634 -8.27516003991e-19 1.39081405172e-12)
               1010                   (0.00772791692492 7.44699463842e-16 -5.73405241381e-06)                   (0.00993833273279 -8.34337091234e-19 -1.50210690191e-12)
               1020                   (0.00772791309757 7.3156727563e-16 -5.73402081047e-06)                   (0.00994108870311 -8.4157834097e-19 -3.21860219382e-12)
               1030                   (0.00772791025947 7.3724205681e-16 -5.73399139077e-06)                   (0.00994369937044 -8.4468984985e-19 -1.58304470667e-12)
               1040                   (0.00772790827335 7.39892212234e-16 -5.73396451078e-06)                   (0.00994618138559 -8.81225698627e-19 -2.03740507908e-12)
               1050                   (0.00772790700414 7.73417927478e-16 -5.73394026658e-06)                   (0.00994854676295 -8.70941229684e-19 -3.35856446986e-12)
               1060                   (0.00772790632948 7.41417833897e-16 -5.73391879641e-06)                   (0.00995079987184 -8.70311176127e-19 -4.22567768158e-12)
               1070                   (0.0077279061434 7.33820821535e-16 -5.73390008218e-06)                   (0.00995294820535 -8.51797787651e-19 -5.46030140758e-12)
               1080                   (0.00772790634927 7.39521084294e-16 -5.73388400784e-06)                   (0.00995499681467 -9.09458879183e-19 -6.52486828526e-12)
               1090                   (0.00772790686185 7.759030212e-16 -5.73387040115e-06)                   (0.00995695272043 -8.59046046594e-19 1.25183087425e-12)
               1100                   (0.00772790760861 7.42173459065e-16 -5.73385909999e-06)                   (0.00995882559966 -8.55075666324e-19 4.2658135631e-12)
               1110                   (0.00772790851776 7.36124211091e-16 -5.73384993891e-06)                   (0.00996060879999 -8.32495652176e-19 -1.33919569983e-12)
               1120                   (0.00772790953364 7.35936976132e-16 -5.73384270451e-06)                   (0.00996229713443 -8.78516480156e-19 -1.33240852389e-12)
               1130                   (0.00772791061455 7.368299643e-16 -5.73383714759e-06)                   (0.00996391266677 -8.56310366211e-19 -4.6554525153e-13)
               1140                   (0.00772791171537 7.35476086801e-16 -5.73383309159e-06)                   (0.00996545708175 -8.82460615901e-19 -6.36655003165e-13)
               1150                   (0.00772791280873 7.36335836382e-16 -5.73383031648e-06)                   (0.00996693068264 -8.69091885686e-19 -1.11759125138e-12)
               1160                   (0.00772791387141 7.34803582617e-16 -5.73382862444e-06)                   (0.00996833662455 -8.6968638779e-19 -8.07409317458e-13)
               1170                   (0.00772791487222 7.31121960353e-16 -5.73382785376e-06)                   (0.00996967663148 -8.51228914668e-19 -9.72498824538e-13)
               1180                   (0.00772791580481 7.36666001738e-16 -5.73382780876e-06)                   (0.00997095383923 -8.39781202695e-19 -7.99512809592e-13)
               1190                   (0.00772791666275 7.33378798961e-16 -5.73382835329e-06)                   (0.00997217046285 -8.55467480828e-19 -8.88333072749e-13)
               1200                   (0.00772791744227 7.32172272885e-16 -5.73382935751e-06)                   (0.00997333207945 -8.75450836944e-19 -2.38803164646e-12)
               1210                   (0.00772791813685 7.34118891751e-16 -5.73383069597e-06)                   (0.00997444111657 -9.16859973e-19 -3.80102848063e-12)
               1220                   (0.00772791874532 7.39958747298e-16 -5.73383226747e-06)                   (0.00997550070214 -8.91469713432e-19 -2.20585558807e-12)
               1230                   (0.00772791927196 7.24394663302e-16 -5.73383398793e-06)                   (0.00997651429577 -8.68982291709e-19 1.01450439112e-11)
               1240                   (0.00772791972579 7.32989919861e-16 -5.73383577452e-06)                   (0.0099774812268 -8.74927970452e-19 7.63905898152e-12)
               1250                   (0.00772792010879 7.36102071813e-16 -5.73383757384e-06)                   (0.00997840512707 -8.53846345876e-19 2.21592555995e-12)
               1260                   (0.00772792042315 7.38645859855e-16 -5.7338393459e-06)                   (0.00997928575499 -8.50548622113e-19 4.92422055696e-13)
               1270                   (0.0077279206753 7.34090085568e-16 -5.7338410481e-06)                   (0.0099801226832 -8.4787405659e-19 3.73516675097e-12)
               1280                   (0.00772792087263 7.3224317981e-16 -5.73384265527e-06)                   (0.00998092035058 -8.69165562575e-19 1.00505497637e-11)
               1290                   (0.0077279210217 7.29420195012e-16 -5.73384414462e-06)                   (0.00998168307734 -8.56567471608e-19 1.24488085946e-11)
               1300                   (0.00772792112874 7.29485562083e-16 -5.7338455115e-06)                   (0.00998241126749 -8.72235738465e-19 7.94789820225e-12)
               1310                   (0.00772792119976 7.32597713831e-16 -5.73384674297e-06)                   (0.00998310719553 -8.47533983524e-19 8.45472140414e-13)
               1320                   (0.00772792124087 7.30450561271e-16 -5.73384783784e-06)                   (0.00998377276829 -8.33263600086e-19 -8.78894435604e-12)
               1330                   (0.00772792125685 7.29140997533e-16 -5.73384879868e-06)                   (0.00998440533513 -8.44492368651e-19 -1.75862218772e-11)
               1340                   (0.00772792125292 7.29270624101e-16 -5.73384962788e-06)                   (0.00998500793977 -8.61186831364e-19 -2.57189596135e-11)
               1350                   (0.00772792123295 7.55617001859e-16 -5.73385033607e-06)                   (0.00998558234687 -8.51036038058e-19 -3.30179927503e-11)
               1360                   (0.00772792120027 7.34849009378e-16 -5.73385093247e-06)                   (0.00998613000782 -8.63464904394e-19 -3.93874675755e-11)
               1370                   (0.00772792115899 7.20748489716e-16 -5.73385142059e-06)                   (0.00998665222349 -8.3717351389e-19 -4.46750780461e-11)
               1380                   (0.00772792111193 7.33286839398e-16 -5.73385181255e-06)                   (0.00998715020497 -8.38380424579e-19 -4.87422206979e-11)
               1390                   (0.00772792106086 7.36133090083e-16 -5.73385212109e-06)                   (0.00998762508734 -8.5082513884e-19 -5.15894323099e-11)
               1400                   (0.00772792100804 7.34980851382e-16 -5.7338523548e-06)                   (0.00998807794916 -8.48817141505e-19 -5.21386886212e-11)
               1410                   (0.00772792095526 7.6554397922e-16 -5.73385252343e-06)                   (0.00998850993629 -8.5924540642e-19 -4.96926553791e-11)
               1420                   (0.00772792090368 7.41412336628e-16 -5.73385263674e-06)                   (0.00998892227889 -8.59553648876e-19 -4.53189495671e-11)
               1430                   (0.00772792085428 7.33618107409e-16 -5.73385270275e-06)                   (0.00998931608052 -8.5764188391e-19 -4.12110057367e-11)
               1440                   (0.00772792080798 7.36113147011e-16 -5.73385272993e-06)                   (0.00998969218837 -8.45934707674e-19 -3.82608122511e-11)
               1450                   (0.00772792076505 7.29691632808e-16 -5.73385272703e-06)                   (0.00999005130247 -8.67137859701e-19 -3.64878387466e-11)
               1460                   (0.0077279207259 7.35370839394e-16 -5.73385269951e-06)                   (0.00999039408611 -8.47892688247e-19 -3.54727302134e-11)
               1470                   (0.00772792069075 7.27725071739e-16 -5.73385265239e-06)                   (0.00999072121162 -8.45505018643e-19 -3.48398238822e-11)
               1480                   (0.00772792065962 7.27251989161e-16 -5.73385259203e-06)                   (0.00999103336836 -8.46318644076e-19 -3.44014051432e-11)
               1490                   (0.00772792063241 7.13622336436e-16 -5.73385252304e-06)                   (0.00999133122051 -8.64339710252e-19 -3.44415280604e-11)
               1500                   (0.00772792060901 7.2269289137e-16 -5.7338524475e-06)                   (0.00999161536159 -8.69006925589e-19 -3.49904049771e-11)
               1510                   (0.00772792058916 7.12371492844e-16 -5.73385237007e-06)                   (0.00999188635714 -8.34573245912e-19 -3.54597152319e-11)
               1520                   (0.0077279205726 7.22464659514e-16 -5.7338522928e-06)                   (0.00999214483136 -8.70411586861e-19 -3.46456555611e-11)
               1530                   (0.00772792055912 7.14757956199e-16 -5.73385221686e-06)                   (0.00999239145278 -8.67819987578e-19 -3.28574660559e-11)
               1540                   (0.00772792054837 7.20591163948e-16 -5.73385214461e-06)                   (0.00999262682361 -8.44123817416e-19 -3.04331222485e-11)
               1550                   (0.00772792054004 7.211905496e-16 -5.73385207699e-06)                   (0.00999285149358 -8.74247808751e-19 -2.76130011201e-11)
               1560                   (0.00772792053379 7.21358953713e-16 -5.73385201499e-06)                   (0.00999306598802 -8.68956542244e-19 -2.46613011495e-11)
               1570                   (0.00772792052944 7.36240557966e-16 -5.73385195834e-06)                   (0.00999327079552 -8.67282676575e-19 -2.18109692236e-11)
               1580                   (0.00772792052663 7.18725423868e-16 -5.73385190793e-06)                   (0.00999346637457 -8.62322864157e-19 -1.92935313235e-11)
               1590                   (0.00772792052518 7.12969770665e-16 -5.73385186301e-06)                   (0.00999365313478 -8.9208809337e-19 -1.71545671142e-11)
               1600                   (0.00772792052478 7.43812094889e-16 -5.73385182442e-06)                   (0.00999383144988 -8.77779008599e-19 -1.53538982452e-11)
               1610                   (0.00772792052525 7.35725374433e-16 -5.73385179129e-06)                   (0.00999400168304 -8.66369093862e-19 -1.38097738951e-11)
               1620                   (0.00772792052643 7.32589956041e-16 -5.73385176323e-06)                   (0.00999416418027 -8.64484977521e-19 -1.24492140689e-11)
               1630                   (0.0077279205281 7.19289356075e-16 -5.7338517402e-06)                   (0.00999431928024 -8.69955046241e-19 -1.12188120527e-11)
               1640                   (0.00772792053016 7.30640013874e-16 -5.73385172152e-06)                   (0.00999446731118 -8.77516684954e-19 -9.80943972735e-12)
               1650                   (0.00772792053246 7.49721749277e-16 -5.73385170696e-06)                   (0.00999460863774 -8.83589572802e-19 -6.90878444468e-12)
               1660                   (0.00772792053492 7.26211650865e-16 -5.73385169547e-06)                   (0.00999474359095 -8.91372387384e-19 -4.58058294934e-12)
               1670                   (0.00772792053744 7.23070692859e-16 -5.73385168724e-06)                   (0.00999487245578 -9.15520417556e-19 -2.71398616509e-12)
               1680                   (0.00772792053992 7.31528567103e-16 -5.73385168173e-06)                   (0.00999499550132 -9.14285675323e-19 -1.29313822541e-12)
               1690                   (0.00772792054231 7.230518582e-16 -5.7338516788e-06)                   (0.0099951129694 -9.2886770682e-19 -3.21195887749e-13)
               1700                   (0.00772792054459 7.31486466086e-16 -5.73385167769e-06)                   (0.009995225225 -8.8138585455e-19 2.64249325262e-13)
               1710                   (0.00772792054677 7.27105743698e-16 -5.73385167761e-06)                   (0.00999533231035 -8.88275384694e-19 9.06086801238e-13)
               1720                   (0.00772792054875 7.22852432303e-16 -5.7338516792e-06)                   (0.00999543448125 -8.99510012551e-19 1.06316042241e-12)
               1730                   (0.00772792055056 7.54859182224e-16 -5.73385168148e-06)                   (0.00999553201944 -8.73708764121e-19 5.14916891979e-13)
